ITEM: TIMESTEP
0
ITEM: NUMBER OF SURFS
327
ITEM: BOX BOUNDS oo oo oo
0 0.002
0 0.002
0 0.01
ITEM: SURFS id v1x v1y v1z v2x v2y v2z v3x v3y v3z 
1 0.00199337 0.00110249 0.004 0.00199867 0.000999668 0.004 0.00199867 0.000999668 0 
16 0.00167795 0.00173355 0.004 0.00174981 0.00165982 0 0.00167795 0.00173355 0 
31 0.000921499 0.00199669 0.004 0.00102442 0.00199934 0 0.000921499 0.00199669 0 
46 0.000282522 0.00169761 0.004 0.000358081 0.00176755 0 0.000282522 0.00169761 0 
61 1.05862e-05 0.000845778 0.004 0 0.00094819 0.004 0 0.00094819 0 
76 0.000358081 0.000231788 0.004 0.000282522 0.000301724 0.004 0.000282522 0.000301724 0 
91 0.00112707 7.94569e-06 0.004 0.00102442 0 0 0.00112707 7.94569e-06 0 
106 0.00174981 0.000339516 0.004 0.00167795 0.000265783 0.004 0.00167795 0.000265783 0 
121 0.000838998 0.000958092 0.004 1.05862e-05 0.000845778 0.004 3.16464e-05 0.000744997 0.004 
136 0.000819393 0.00198347 0.004 0.000950358 0.00115744 0.004 0.000977716 0.00116333 0.004 
151 0.00103344 0.000838372 0.004 0.00100568 0.000834817 0.004 0.00112707 7.94569e-06 0.004 
166 0.0010602 0.000846567 0.004 0.00103344 0.000838372 0.004 0.00132722 5.51792e-05 0.004 
181 0.00108518 0.000859166 0.004 0.0010602 0.000846567 0.004 0.00142259 9.39662e-05 0.004 
196 0.00044043 0.00182935 0.004 0.00090056 0.00113233 0.004 0.000924391 0.001147 0.004 
211 0.00167795 0.00173355 0.004 0.00159889 0.00179951 0.004 0.00110769 0.00112353 0.004 
226 0.000834269 0.00101366 0.004 0.000834269 0.000985675 0.004 0.000834269 0.00101366 0.001 
241 0.00114272 0.00108014 0.004 0.00112705 0.00110332 0.004 0.00114272 0.00108014 0.001 
256 0.0010602 0.00115277 0.001 0.00103344 0.00116097 0.004 0.00103344 0.00116097 0.001 
271 0.000950358 0.00115744 0.001 0.000924391 0.001147 0.004 0.000924391 0.001147 0.001 
286 0.000879551 0.00111384 0.004 0.00086197 0.00109206 0.004 0.000879551 0.00111384 0.001 
301 0.00110769 0.00112353 0.001 0.000924391 0.001147 0.001 0.00090056 0.00113233 0.001 
316 0.00110769 0.00112353 0.001 0.000977716 0.000836005 0.001 0.00100568 0.000834817 0.001 
2 0.00199337 0.00110249 0.004 0.00199867 0.000999668 0 0.00199337 0.00110249 0 
17 0.00159889 0.00179951 0.004 0.00167795 0.00173355 0.004 0.00167795 0.00173355 0 
32 0.000921499 0.00199669 0.004 0.00102442 0.00199934 0.004 0.00102442 0.00199934 0 
47 0.000214554 0.00162028 0.004 0.000282522 0.00169761 0.004 0.000282522 0.00169761 0 
62 1.05862e-05 0.000845778 0.004 0 0.00094819 0 1.05862e-05 0.000845778 0 
77 0.00044043 0.000169991 0.004 0.000358081 0.000231788 0 0.00044043 0.000169991 0 
92 0.00112707 7.94569e-06 0.004 0.00102442 0 0.004 0.00102442 0 0 
107 0.0018137 0.000420247 0.004 0.00174981 0.000339516 0 0.0018137 0.000420247 0 
122 0.000838998 0.000958092 0.004 3.16464e-05 0.000744997 0.004 6.29573e-05 0.000646916 0.004 
137 0.00174981 0.000339516 0.004 0.00110769 0.000875808 0.004 0.00167795 0.000265783 0.004 
152 0.000358081 0.00176755 0.004 0.000879551 0.00111384 0.004 0.00090056 0.00113233 0.004 
167 0.00090056 0.000867009 0.004 0.000358081 0.000231788 0.004 0.00044043 0.000169991 0.004 
182 0.0018137 0.000420247 0.004 0.00112705 0.000896012 0.004 0.00174981 0.000339516 0.004 
197 0.00086197 0.00109206 0.004 0.000104187 0.00144676 0.004 0.000848321 0.00106763 0.004 
212 0.000879551 0.00111384 0.004 0.000282522 0.00169761 0.004 0.000214554 0.00162028 0.004 
227 0.00116367 0.000999668 0.001 0.0011613 0.00102755 0.004 0.0011613 0.00102755 0.001 
242 0.00086197 0.000907273 0.004 0.000879551 0.000885499 0.004 0.00086197 0.000907273 0.001 
257 0.000950358 0.000841901 0.004 0.000977716 0.000836005 0.004 0.000950358 0.000841901 0.001 
272 0.0010602 0.000846567 0.004 0.00108518 0.000859166 0.004 0.0010602 0.000846567 0.001 
287 0.00114272 0.000919199 0.004 0.00115425 0.0009447 0.004 0.00114272 0.000919199 0.001 
302 0.00110769 0.00112353 0.001 0.00090056 0.00113233 0.001 0.000879551 0.00111384 0.001 
317 0.00110769 0.00112353 0.001 0.00100568 0.000834817 0.001 0.00103344 0.000838372 0.001 
3 0.00197753 0.00120422 0.004 0.00199337 0.00110249 0.004 0.00199337 0.00110249 0 
18 0.00159889 0.00179951 0.004 0.00167795 0.00173355 0 0.00159889 0.00179951 0 
33 0.000819393 0.00198347 0.004 0.000921499 0.00199669 0 0.000819393 0.00198347 0 
48 0.000214554 0.00162028 0.004 0.000282522 0.00169761 0 0.000214554 0.00162028 0 
63 3.16464e-05 0.000744997 0.004 1.05862e-05 0.000845778 0.004 1.05862e-05 0.000845778 0 
78 0.00044043 0.000169991 0.004 0.000358081 0.000231788 0.004 0.000358081 0.000231788 0 
93 0.00122836 2.6404e-05 0.004 0.00112707 7.94569e-06 0 0.00122836 2.6404e-05 0 
108 0.0018137 0.000420247 0.004 0.00174981 0.000339516 0.004 0.00174981 0.000339516 0 
123 0.000621946 0.00192599 0.004 0.000924391 0.001147 0.004 0.000950358 0.00115744 0.004 
138 0.00174981 0.000339516 0.004 0.00112705 0.000896012 0.004 0.00110769 0.000875808 0.004 
153 0.000358081 0.00176755 0.004 0.000282522 0.00169761 0.004 0.000879551 0.00111384 0.004 
168 0.00197753 0.00120422 0.004 0.0011613 0.00102755 0.004 0.00199337 0.00110249 0.004 
183 0.000924391 0.000852336 0.004 0.00044043 0.000169991 0.004 0.000528697 0.00011699 0.004 
198 0.0018137 0.00157909 0.004 0.00112705 0.00110332 0.004 0.00114272 0.00108014 0.004 
213 0.00167795 0.00173355 0.004 0.00110769 0.00112353 0.004 0.00174981 0.00165982 0.004 
228 0.00116367 0.000999668 0.004 0.0011613 0.00102755 0.004 0.00116367 0.000999668 0.001 
243 0.00112705 0.00110332 0.004 0.00110769 0.00112353 0.004 0.00112705 0.00110332 0.001 
258 0.0010602 0.00115277 0.004 0.00103344 0.00116097 0.004 0.0010602 0.00115277 0.001 
273 0.0010602 0.000846567 0.001 0.00108518 0.000859166 0.004 0.00108518 0.000859166 0.001 
288 0.00086197 0.00109206 0.001 0.000848321 0.00106763 0.004 0.000848321 0.00106763 0.001 
303 0.00110769 0.00112353 0.001 0.000879551 0.00111384 0.001 0.00086197 0.00109206 0.001 
318 0.00110769 0.00112353 0.001 0.00103344 0.000838372 0.001 0.0010602 0.000846567 0.001 
4 0.00197753 0.00120422 0.004 0.00199337 0.00110249 0 0.00197753 0.00120422 0 
19 0.00151347 0.00185698 0.004 0.00159889 0.00179951 0.004 0.00159889 0.00179951 0 
34 0.000819393 0.00198347 0.004 0.000921499 0.00199669 0.004 0.000921499 0.00199669 0 
49 0.000154899 0.00153636 0.004 0.000214554 0.00162028 0.004 0.000214554 0.00162028 0 
64 3.16464e-05 0.000744997 0.004 1.05862e-05 0.000845778 0 3.16464e-05 0.000744997 0 
79 0.000528697 0.00011699 0.004 0.00044043 0.000169991 0 0.000528697 0.00011699 0 
94 0.00122836 2.6404e-05 0.004 0.00112707 7.94569e-06 0.004 0.00112707 7.94569e-06 0 
109 0.00186896 0.00050712 0.004 0.0018137 0.000420247 0 0.00186896 0.00050712 0 
124 0.000621946 0.00192599 0.004 0.000528697 0.00188235 0.004 0.000924391 0.001147 0.004 
139 0.00100568 0.000834817 0.004 0.000977716 0.000836005 0.004 0.000921499 2.65089e-06 0.004 
154 0.00199337 0.00110249 0.004 0.00116367 0.000999668 0.004 0.00199867 0.000999668 0.004 
169 0.000848321 0.00106763 0.004 0.000104187 0.00144676 0.004 6.29573e-05 0.00135242 0.004 
184 0.00191499 0.00140012 0.004 0.00115425 0.00105464 0.004 0.00195131 0.00130378 0.004 
199 0.00186896 0.00050712 0.004 0.00114272 0.000919199 0.004 0.0018137 0.000420247 0.004 
214 0.000879551 0.00111384 0.004 0.000214554 0.00162028 0.004 0.00086197 0.00109206 0.004 
229 0.000834269 0.000985675 0.001 0.000838998 0.000958092 0.004 0.000838998 0.000958092 0.001 
244 0.000879551 0.000885499 0.001 0.00090056 0.000867009 0.004 0.00090056 0.000867009 0.001 
259 0.000977716 0.000836005 0.001 0.00100568 0.000834817 0.004 0.00100568 0.000834817 0.001 
274 0.000950358 0.00115744 0.004 0.000924391 0.001147 0.004 0.000950358 0.00115744 0.001 
289 0.00114272 0.000919199 0.001 0.00115425 0.0009447 0.004 0.00115425 0.0009447 0.001 
304 0.00110769 0.00112353 0.001 0.00086197 0.00109206 0.001 0.000848321 0.00106763 0.001 
319 0.00110769 0.00112353 0.001 0.0010602 0.000846567 0.001 0.00108518 0.000859166 0.001 
5 0.00195131 0.00130378 0.004 0.00197753 0.00120422 0.004 0.00197753 0.00120422 0 
20 0.00151347 0.00185698 0.004 0.00159889 0.00179951 0 0.00151347 0.00185698 0 
35 0.000719189 0.00195982 0.004 0.000819393 0.00198347 0 0.000719189 0.00195982 0 
50 0.000154899 0.00153636 0.004 0.000214554 0.00162028 0 0.000154899 0.00153636 0 
65 6.29573e-05 0.000646916 0.004 3.16464e-05 0.000744997 0.004 3.16464e-05 0.000744997 0 
80 0.000528697 0.00011699 0.004 0.00044043 0.000169991 0.004 0.00044043 0.000169991 0 
95 0.00132722 5.51792e-05 0.004 0.00122836 2.6404e-05 0 0.00132722 5.51792e-05 0 
110 0.00186896 0.00050712 0.004 0.0018137 0.000420247 0.004 0.0018137 0.000420247 0 
125 0.00195131 0.000695554 0.004 0.00115425 0.0009447 0.004 0.00191499 0.000599215 0.004 
140 0.00199337 0.000896848 0.004 0.0011613 0.000971783 0.004 0.00197753 0.000795116 0.004 
155 0.00199337 0.00110249 0.004 0.0011613 0.00102755 0.004 0.00116367 0.000999668 0.004 
170 0.00122836 0.00197293 0.004 0.00112707 0.00199139 0.004 0.00103344 0.00116097 0.004 
185 0.000924391 0.000852336 0.004 0.000528697 0.00011699 0.004 0.000621946 7.33445e-05 0.004 
200 0.0018137 0.00157909 0.004 0.00114272 0.00108014 0.004 0.00186896 0.00149222 0.004 
215 0.000950358 0.000841901 0.004 0.000924391 0.000852336 0.004 0.000621946 7.33445e-05 0.004 
230 0.000834269 0.000985675 0.004 0.000838998 0.000958092 0.004 0.000834269 0.000985675 0.001 
245 0.00112705 0.00110332 0.001 0.00110769 0.00112353 0.004 0.00110769 0.00112353 0.001 
260 0.00103344 0.00116097 0.001 0.00100568 0.00116452 0.004 0.00100568 0.00116452 0.001 
275 0.000924391 0.001147 0.001 0.00090056 0.00113233 0.004 0.00090056 0.00113233 0.001 
290 0.00086197 0.00109206 0.004 0.000848321 0.00106763 0.004 0.00086197 0.00109206 0.001 
305 0.00110769 0.00112353 0.001 0.000848321 0.00106763 0.001 0.000838998 0.00104124 0.001 
320 0.00110769 0.00112353 0.001 0.00108518 0.000859166 0.001 0.00110769 0.000875808 0.001 
6 0.00195131 0.00130378 0.004 0.00197753 0.00120422 0 0.00195131 0.00130378 0 
21 0.00142259 0.00190537 0.004 0.00151347 0.00185698 0 0.00142259 0.00190537 0 
36 0.000719189 0.00195982 0.004 0.000819393 0.00198347 0.004 0.000819393 0.00198347 0 
51 0.000104187 0.00144676 0.004 0.000154899 0.00153636 0.004 0.000154899 0.00153636 0 
66 6.29573e-05 0.000646916 0.004 3.16464e-05 0.000744997 0 6.29573e-05 0.000646916 0 
81 0.000621946 7.33445e-05 0.004 0.000528697 0.00011699 0 0.000621946 7.33445e-05 0 
96 0.00132722 5.51792e-05 0.004 0.00122836 2.6404e-05 0.004 0.00122836 2.6404e-05 0 
111 0.00191499 0.000599215 0.004 0.00186896 0.00050712 0 0.00191499 0.000599215 0 
126 0.000977716 0.000836005 0.004 0.000819393 1.58704e-05 0.004 0.000921499 2.65089e-06 0.004 
141 0.00199337 0.000896848 0.004 0.00116367 0.000999668 0.004 0.0011613 0.000971783 0.004 
156 0.000838998 0.00104124 0.004 6.29573e-05 0.00135242 0.004 3.16464e-05 0.00125434 0.004 
171 0.000848321 0.00106763 0.004 6.29573e-05 0.00135242 0.004 0.000838998 0.00104124 0.004 
186 0.00142259 0.00190537 0.004 0.0010602 0.00115277 0.004 0.00108518 0.00114017 0.004 
201 0.00110769 0.000875808 0.004 0.00159889 0.000199829 0.004 0.00167795 0.000265783 0.004 
216 0.000838998 0.000958092 0.004 6.29573e-05 0.000646916 0.004 0.000848321 0.000931705 0.004 
231 0.0011613 0.00102755 0.001 0.00115425 0.00105464 0.004 0.00115425 0.00105464 0.001 
246 0.000879551 0.000885499 0.004 0.00090056 0.000867009 0.004 0.000879551 0.000885499 0.001 
261 0.000977716 0.000836005 0.004 0.00100568 0.000834817 0.004 0.000977716 0.000836005 0.001 
276 0.00108518 0.000859166 0.004 0.00110769 0.000875808 0.004 0.00108518 0.000859166 0.001 
291 0.00115425 0.0009447 0.004 0.0011613 0.000971783 0.004 0.00115425 0.0009447 0.001 
306 0.00110769 0.00112353 0.001 0.000838998 0.00104124 0.001 0.000834269 0.00101366 0.001 
321 0.00110769 0.00112353 0.001 0.00110769 0.000875808 0.001 0.00112705 0.000896012 0.001 
7 0.00191499 0.00140012 0.004 0.00195131 0.00130378 0.004 0.00195131 0.00130378 0 
22 0.00142259 0.00190537 0.004 0.00151347 0.00185698 0.004 0.00151347 0.00185698 0 
37 0.000621946 0.00192599 0.004 0.000719189 0.00195982 0.004 0.000719189 0.00195982 0 
52 0.000104187 0.00144676 0.004 0.000154899 0.00153636 0 0.000104187 0.00144676 0 
67 0.000104187 0.000552575 0.004 6.29573e-05 0.000646916 0.004 6.29573e-05 0.000646916 0 
82 0.000621946 7.33445e-05 0.004 0.000528697 0.00011699 0.004 0.000528697 0.00011699 0 
97 0.00142259 9.39662e-05 0.004 0.00132722 5.51792e-05 0 0.00142259 9.39662e-05 0 
112 0.00191499 0.000599215 0.004 0.00186896 0.00050712 0.004 0.00186896 0.00050712 0 
127 0.000977716 0.000836005 0.004 0.000950358 0.000841901 0.004 0.000819393 1.58704e-05 0.004 
142 0.000834269 0.00101366 0.004 1.05862e-05 0.00115356 0.004 0 0.00105115 0.004 
157 0.000838998 0.00104124 0.004 3.16464e-05 0.00125434 0.004 1.05862e-05 0.00115356 0.004 
172 0.00195131 0.00130378 0.004 0.00115425 0.00105464 0.004 0.00197753 0.00120422 0.004 
187 0.0018137 0.000420247 0.004 0.00114272 0.000919199 0.004 0.00112705 0.000896012 0.004 
202 0.000848321 0.000931705 0.004 6.29573e-05 0.000646916 0.004 0.000104187 0.000552575 0.004 
217 0.00191499 0.000599215 0.004 0.00114272 0.000919199 0.004 0.00186896 0.00050712 0.004 
232 0.0011613 0.00102755 0.004 0.00115425 0.00105464 0.004 0.0011613 0.00102755 0.001 
247 0.00090056 0.000867009 0.001 0.000924391 0.000852336 0.004 0.000924391 0.000852336 0.001 
262 0.00103344 0.00116097 0.004 0.00100568 0.00116452 0.004 0.00103344 0.00116097 0.001 
277 0.00108518 0.000859166 0.001 0.00110769 0.000875808 0.004 0.00110769 0.000875808 0.001 
292 0.00115425 0.0009447 0.001 0.0011613 0.000971783 0.004 0.0011613 0.000971783 0.001 
307 0.00110769 0.00112353 0.001 0.000834269 0.00101366 0.001 0.000834269 0.000985675 0.001 
322 0.00110769 0.00112353 0.001 0.00112705 0.000896012 0.001 0.00114272 0.000919199 0.001 
8 0.00191499 0.00140012 0.004 0.00195131 0.00130378 0 0.00191499 0.00140012 0 
23 0.00132722 0.00194416 0.004 0.00142259 0.00190537 0 0.00132722 0.00194416 0 
38 0.000621946 0.00192599 0.004 0.000719189 0.00195982 0 0.000621946 0.00192599 0 
53 6.29573e-05 0.00135242 0.004 0.000104187 0.00144676 0.004 0.000104187 0.00144676 0 
68 0.000104187 0.000552575 0.004 6.29573e-05 0.000646916 0 0.000104187 0.000552575 0 
83 0.000719189 3.95186e-05 0.004 0.000621946 7.33445e-05 0 0.000719189 3.95186e-05 0 
98 0.00142259 9.39662e-05 0.004 0.00132722 5.51792e-05 0.004 0.00132722 5.51792e-05 0 
113 0.00195131 0.000695554 0.004 0.00191499 0.000599215 0 0.00195131 0.000695554 0 
128 0.000719189 0.00195982 0.004 0.000621946 0.00192599 0.004 0.000950358 0.00115744 0.004 
143 0.000921499 0.00199669 0.004 0.000819393 0.00198347 0.004 0.000977716 0.00116333 0.004 
158 0.000879551 0.000885499 0.004 0.000214554 0.000379059 0.004 0.000282522 0.000301724 0.004 
173 0.00086197 0.000907273 0.004 0.000214554 0.000379059 0.004 0.000879551 0.000885499 0.004 
188 0.00142259 0.00190537 0.004 0.00132722 0.00194416 0.004 0.0010602 0.00115277 0.004 
203 0.00159889 0.00179951 0.004 0.00108518 0.00114017 0.004 0.00110769 0.00112353 0.004 
218 0.00191499 0.000599215 0.004 0.00115425 0.0009447 0.004 0.00114272 0.000919199 0.004 
233 0.000838998 0.000958092 0.001 0.000848321 0.000931705 0.004 0.000848321 0.000931705 0.001 
248 0.00110769 0.00112353 0.004 0.00108518 0.00114017 0.004 0.00110769 0.00112353 0.001 
263 0.00100568 0.000834817 0.001 0.00103344 0.000838372 0.004 0.00103344 0.000838372 0.001 
278 0.000924391 0.001147 0.004 0.00090056 0.00113233 0.004 0.000924391 0.001147 0.001 
293 0.00110769 0.00112353 0.001 0.00115425 0.00105464 0.001 0.00114272 0.00108014 0.001 
308 0.00110769 0.00112353 0.001 0.000834269 0.000985675 0.001 0.000838998 0.000958092 0.001 
323 0.00110769 0.00112353 0.001 0.00114272 0.000919199 0.001 0.00115425 0.0009447 0.001 
9 0.00186896 0.00149222 0.004 0.00191499 0.00140012 0.004 0.00191499 0.00140012 0 
24 0.00132722 0.00194416 0.004 0.00142259 0.00190537 0.004 0.00142259 0.00190537 0 
39 0.000528697 0.00188235 0.004 0.000621946 0.00192599 0.004 0.000621946 0.00192599 0 
54 6.29573e-05 0.00135242 0.004 0.000104187 0.00144676 0 6.29573e-05 0.00135242 0 
69 0.000154899 0.000462972 0.004 0.000104187 0.000552575 0.004 0.000104187 0.000552575 0 
84 0.000719189 3.95186e-05 0.004 0.000621946 7.33445e-05 0.004 0.000621946 7.33445e-05 0 
99 0.00151347 0.000142354 0.004 0.00142259 9.39662e-05 0 0.00151347 0.000142354 0 
114 0.00195131 0.000695554 0.004 0.00191499 0.000599215 0.004 0.00191499 0.000599215 0 
129 0.000834269 0.000985675 0.004 1.05862e-05 0.000845778 0.004 0.000838998 0.000958092 0.004 
144 0.000834269 0.00101366 0.004 0 0.00105115 0.004 0 0.00094819 0.004 
159 0.000838998 0.00104124 0.004 1.05862e-05 0.00115356 0.004 0.000834269 0.00101366 0.004 
174 0.00132722 0.00194416 0.004 0.00103344 0.00116097 0.004 0.0010602 0.00115277 0.004 
189 0.00086197 0.00109206 0.004 0.000214554 0.00162028 0.004 0.000154899 0.00153636 0.004 
204 0.00159889 0.00179951 0.004 0.00151347 0.00185698 0.004 0.00108518 0.00114017 0.004 
219 0.000848321 0.00106763 0.001 0.000838998 0.00104124 0.004 0.000838998 0.00104124 0.001 
234 0.000838998 0.000958092 0.004 0.000848321 0.000931705 0.004 0.000838998 0.000958092 0.001 
249 0.00110769 0.00112353 0.001 0.00108518 0.00114017 0.004 0.00108518 0.00114017 0.001 
264 0.00100568 0.00116452 0.001 0.000977716 0.00116333 0.004 0.000977716 0.00116333 0.001 
279 0.00090056 0.00113233 0.001 0.000879551 0.00111384 0.004 0.000879551 0.00111384 0.001 
294 0.00110769 0.00112353 0.001 0.00114272 0.00108014 0.001 0.00112705 0.00110332 0.001 
309 0.00110769 0.00112353 0.001 0.000838998 0.000958092 0.001 0.000848321 0.000931705 0.001 
324 0.00110769 0.00112353 0.001 0.00115425 0.0009447 0.001 0.0011613 0.000971783 0.001 
10 0.00186896 0.00149222 0.004 0.00191499 0.00140012 0 0.00186896 0.00149222 0 
25 0.00122836 0.00197293 0.004 0.00132722 0.00194416 0 0.00122836 0.00197293 0 
40 0.000528697 0.00188235 0.004 0.000621946 0.00192599 0 0.000528697 0.00188235 0 
55 3.16464e-05 0.00125434 0.004 6.29573e-05 0.00135242 0.004 6.29573e-05 0.00135242 0 
70 0.000154899 0.000462972 0.004 0.000104187 0.000552575 0 0.000154899 0.000462972 0 
85 0.000819393 1.58704e-05 0.004 0.000719189 3.95186e-05 0.004 0.000719189 3.95186e-05 0 
100 0.00151347 0.000142354 0.004 0.00142259 9.39662e-05 0.004 0.00142259 9.39662e-05 0 
115 0.00197753 0.000795116 0.004 0.00195131 0.000695554 0 0.00197753 0.000795116 0 
130 0.000834269 0.000985675 0.004 0 0.00094819 0.004 1.05862e-05 0.000845778 0.004 
145 0.000834269 0.00101366 0.004 0 0.00094819 0.004 0.000834269 0.000985675 0.004 
160 0.000879551 0.000885499 0.004 0.000282522 0.000301724 0.004 0.000358081 0.000231788 0.004 
175 0.00132722 0.00194416 0.004 0.00122836 0.00197293 0.004 0.00103344 0.00116097 0.004 
190 0.00086197 0.00109206 0.004 0.000154899 0.00153636 0.004 0.000104187 0.00144676 0.004 
205 0.00174981 0.00165982 0.004 0.00110769 0.00112353 0.004 0.00112705 0.00110332 0.004 
220 0.0011613 0.000971783 0.004 0.00116367 0.000999668 0.004 0.0011613 0.000971783 0.001 
235 0.00115425 0.00105464 0.001 0.00114272 0.00108014 0.004 0.00114272 0.00108014 0.001 
250 0.00090056 0.000867009 0.004 0.000924391 0.000852336 0.004 0.00090056 0.000867009 0.001 
265 0.00100568 0.000834817 0.004 0.00103344 0.000838372 0.004 0.00100568 0.000834817 0.001 
280 0.00110769 0.000875808 0.004 0.00112705 0.000896012 0.004 0.00110769 0.000875808 0.001 
295 0.00110769 0.00112353 0.001 0.00108518 0.00114017 0.001 0.0010602 0.00115277 0.001 
310 0.00110769 0.00112353 0.001 0.000848321 0.000931705 0.001 0.00086197 0.000907273 0.001 
325 0.00110769 0.00112353 0.001 0.0011613 0.000971783 0.001 0.00116367 0.000999668 0.001 
11 0.0018137 0.00157909 0.004 0.00186896 0.00149222 0.004 0.00186896 0.00149222 0 
26 0.00122836 0.00197293 0.004 0.00132722 0.00194416 0.004 0.00132722 0.00194416 0 
41 0.00044043 0.00182935 0.004 0.000528697 0.00188235 0.004 0.000528697 0.00188235 0 
56 3.16464e-05 0.00125434 0.004 6.29573e-05 0.00135242 0 3.16464e-05 0.00125434 0 
71 0.000214554 0.000379059 0.004 0.000154899 0.000462972 0.004 0.000154899 0.000462972 0 
86 0.000819393 1.58704e-05 0.004 0.000719189 3.95186e-05 0 0.000819393 1.58704e-05 0 
101 0.00159889 0.000199829 0.004 0.00151347 0.000142354 0 0.00159889 0.000199829 0 
116 0.00197753 0.000795116 0.004 0.00195131 0.000695554 0.004 0.00195131 0.000695554 0 
131 0.00197753 0.000795116 0.004 0.00115425 0.0009447 0.004 0.00195131 0.000695554 0.004 
146 0.000921499 0.00199669 0.004 0.000977716 0.00116333 0.004 0.00100568 0.00116452 0.004 
161 0.00112707 0.00199139 0.004 0.00102442 0.00199934 0.004 0.00100568 0.00116452 0.004 
176 0.00086197 0.000907273 0.004 0.000104187 0.000552575 0.004 0.000154899 0.000462972 0.004 
191 0.00044043 0.00182935 0.004 0.000358081 0.00176755 0.004 0.00090056 0.00113233 0.004 
206 0.000528697 0.00188235 0.004 0.00044043 0.00182935 0.004 0.000924391 0.001147 0.004 
221 0.000848321 0.00106763 0.004 0.000838998 0.00104124 0.004 0.000848321 0.00106763 0.001 
236 0.00115425 0.00105464 0.004 0.00114272 0.00108014 0.004 0.00115425 0.00105464 0.001 
251 0.000924391 0.000852336 0.001 0.000950358 0.000841901 0.004 0.000950358 0.000841901 0.001 
266 0.00100568 0.00116452 0.004 0.000977716 0.00116333 0.004 0.00100568 0.00116452 0.001 
281 0.00110769 0.000875808 0.001 0.00112705 0.000896012 0.004 0.00112705 0.000896012 0.001 
296 0.00110769 0.00112353 0.001 0.0010602 0.00115277 0.001 0.00103344 0.00116097 0.001 
311 0.00110769 0.00112353 0.001 0.00086197 0.000907273 0.001 0.000879551 0.000885499 0.001 
326 0.00110769 0.00112353 0.001 0.00116367 0.000999668 0.001 0.0011613 0.00102755 0.001 
12 0.0018137 0.00157909 0.004 0.00186896 0.00149222 0 0.0018137 0.00157909 0 
27 0.00112707 0.00199139 0.004 0.00122836 0.00197293 0 0.00112707 0.00199139 0 
42 0.00044043 0.00182935 0.004 0.000528697 0.00188235 0 0.00044043 0.00182935 0 
57 1.05862e-05 0.00115356 0.004 3.16464e-05 0.00125434 0.004 3.16464e-05 0.00125434 0 
72 0.000214554 0.000379059 0.004 0.000154899 0.000462972 0 0.000214554 0.000379059 0 
87 0.000921499 2.65089e-06 0.004 0.000819393 1.58704e-05 0 0.000921499 2.65089e-06 0 
102 0.00159889 0.000199829 0.004 0.00151347 0.000142354 0.004 0.00151347 0.000142354 0 
117 0.00199337 0.000896848 0.004 0.00197753 0.000795116 0 0.00199337 0.000896848 0 
132 0.00197753 0.000795116 0.004 0.0011613 0.000971783 0.004 0.00115425 0.0009447 0.004 
147 0.00199867 0.000999668 0.004 0.00116367 0.000999668 0.004 0.00199337 0.000896848 0.004 
162 0.00112707 0.00199139 0.004 0.00100568 0.00116452 0.004 0.00103344 0.00116097 0.004 
177 0.00108518 0.000859166 0.004 0.00142259 9.39662e-05 0.004 0.00151347 0.000142354 0.004 
192 0.000924391 0.000852336 0.004 0.00090056 0.000867009 0.004 0.00044043 0.000169991 0.004 
207 0.00110769 0.000875808 0.004 0.00108518 0.000859166 0.004 0.00159889 0.000199829 0.004 
222 0.0011613 0.000971783 0.001 0.00116367 0.000999668 0.004 0.00116367 0.000999668 0.001 
237 0.000848321 0.000931705 0.001 0.00086197 0.000907273 0.004 0.00086197 0.000907273 0.001 
252 0.00108518 0.00114017 0.001 0.0010602 0.00115277 0.004 0.0010602 0.00115277 0.001 
267 0.000977716 0.00116333 0.001 0.000950358 0.00115744 0.004 0.000950358 0.00115744 0.001 
282 0.00090056 0.00113233 0.004 0.000879551 0.00111384 0.004 0.00090056 0.00113233 0.001 
297 0.00110769 0.00112353 0.001 0.00103344 0.00116097 0.001 0.00100568 0.00116452 0.001 
312 0.00110769 0.00112353 0.001 0.000879551 0.000885499 0.001 0.00090056 0.000867009 0.001 
327 0.00110769 0.00112353 0.001 0.0011613 0.00102755 0.001 0.00115425 0.00105464 0.001 
13 0.00174981 0.00165982 0.004 0.0018137 0.00157909 0.004 0.0018137 0.00157909 0 
28 0.00112707 0.00199139 0.004 0.00122836 0.00197293 0.004 0.00122836 0.00197293 0 
43 0.000358081 0.00176755 0.004 0.00044043 0.00182935 0.004 0.00044043 0.00182935 0 
58 1.05862e-05 0.00115356 0.004 3.16464e-05 0.00125434 0 1.05862e-05 0.00115356 0 
73 0.000282522 0.000301724 0.004 0.000214554 0.000379059 0.004 0.000214554 0.000379059 0 
88 0.000921499 2.65089e-06 0.004 0.000819393 1.58704e-05 0.004 0.000819393 1.58704e-05 0 
103 0.00167795 0.000265783 0.004 0.00159889 0.000199829 0 0.00167795 0.000265783 0 
118 0.00199337 0.000896848 0.004 0.00197753 0.000795116 0.004 0.00197753 0.000795116 0 
133 0.000819393 0.00198347 0.004 0.000719189 0.00195982 0.004 0.000950358 0.00115744 0.004 
148 0.00103344 0.000838372 0.004 0.00112707 7.94569e-06 0.004 0.00122836 2.6404e-05 0.004 
163 0.0010602 0.000846567 0.004 0.00132722 5.51792e-05 0.004 0.00142259 9.39662e-05 0.004 
178 0.00086197 0.000907273 0.004 0.000154899 0.000462972 0.004 0.000214554 0.000379059 0.004 
193 0.00186896 0.00149222 0.004 0.00114272 0.00108014 0.004 0.00191499 0.00140012 0.004 
208 0.000950358 0.000841901 0.004 0.000621946 7.33445e-05 0.004 0.000719189 3.95186e-05 0.004 
223 0.000838998 0.00104124 0.001 0.000834269 0.00101366 0.004 0.000834269 0.00101366 0.001 
238 0.000848321 0.000931705 0.004 0.00086197 0.000907273 0.004 0.000848321 0.000931705 0.001 
253 0.000924391 0.000852336 0.004 0.000950358 0.000841901 0.004 0.000924391 0.000852336 0.001 
268 0.00103344 0.000838372 0.001 0.0010602 0.000846567 0.004 0.0010602 0.000846567 0.001 
283 0.000879551 0.00111384 0.001 0.00086197 0.00109206 0.004 0.00086197 0.00109206 0.001 
298 0.00110769 0.00112353 0.001 0.00100568 0.00116452 0.001 0.000977716 0.00116333 0.001 
313 0.00110769 0.00112353 0.001 0.00090056 0.000867009 0.001 0.000924391 0.000852336 0.001 
14 0.00174981 0.00165982 0.004 0.0018137 0.00157909 0 0.00174981 0.00165982 0 
29 0.00102442 0.00199934 0.004 0.00112707 0.00199139 0 0.00102442 0.00199934 0 
44 0.000358081 0.00176755 0.004 0.00044043 0.00182935 0 0.000358081 0.00176755 0 
59 0 0.00105115 0.004 1.05862e-05 0.00115356 0.004 1.05862e-05 0.00115356 0 
74 0.000282522 0.000301724 0.004 0.000214554 0.000379059 0 0.000282522 0.000301724 0 
89 0.00102442 0 0.004 0.000921499 2.65089e-06 0.004 0.000921499 2.65089e-06 0 
104 0.00167795 0.000265783 0.004 0.00159889 0.000199829 0.004 0.00159889 0.000199829 0 
119 0.00199867 0.000999668 0.004 0.00199337 0.000896848 0 0.00199867 0.000999668 0 
134 0.00100568 0.000834817 0.004 0.000921499 2.65089e-06 0.004 0.00102442 0 0.004 
149 0.00103344 0.000838372 0.004 0.00122836 2.6404e-05 0.004 0.00132722 5.51792e-05 0.004 
164 0.00197753 0.00120422 0.004 0.00115425 0.00105464 0.004 0.0011613 0.00102755 0.004 
179 0.00108518 0.000859166 0.004 0.00151347 0.000142354 0.004 0.00159889 0.000199829 0.004 
194 0.000848321 0.000931705 0.004 0.000104187 0.000552575 0.004 0.00086197 0.000907273 0.004 
209 0.00174981 0.00165982 0.004 0.00112705 0.00110332 0.004 0.0018137 0.00157909 0.004 
224 0.000838998 0.00104124 0.004 0.000834269 0.00101366 0.004 0.000838998 0.00104124 0.001 
239 0.00114272 0.00108014 0.001 0.00112705 0.00110332 0.004 0.00112705 0.00110332 0.001 
254 0.00108518 0.00114017 0.004 0.0010602 0.00115277 0.004 0.00108518 0.00114017 0.001 
269 0.000977716 0.00116333 0.004 0.000950358 0.00115744 0.004 0.000977716 0.00116333 0.001 
284 0.00112705 0.000896012 0.004 0.00114272 0.000919199 0.004 0.00112705 0.000896012 0.001 
299 0.00110769 0.00112353 0.001 0.000977716 0.00116333 0.001 0.000950358 0.00115744 0.001 
314 0.00110769 0.00112353 0.001 0.000924391 0.000852336 0.001 0.000950358 0.000841901 0.001 
15 0.00167795 0.00173355 0.004 0.00174981 0.00165982 0.004 0.00174981 0.00165982 0 
30 0.00102442 0.00199934 0.004 0.00112707 0.00199139 0.004 0.00112707 0.00199139 0 
45 0.000282522 0.00169761 0.004 0.000358081 0.00176755 0.004 0.000358081 0.00176755 0 
60 0 0.00105115 0.004 1.05862e-05 0.00115356 0 0 0.00105115 0 
75 0.000358081 0.000231788 0.004 0.000282522 0.000301724 0 0.000358081 0.000231788 0 
90 0.00102442 0 0.004 0.000921499 2.65089e-06 0 0.00102442 0 0 
105 0.00174981 0.000339516 0.004 0.00167795 0.000265783 0 0.00174981 0.000339516 0 
120 0.00199867 0.000999668 0.004 0.00199337 0.000896848 0.004 0.00199337 0.000896848 0 
135 0.00100568 0.000834817 0.004 0.00102442 0 0.004 0.00112707 7.94569e-06 0.004 
150 0.00102442 0.00199934 0.004 0.000921499 0.00199669 0.004 0.00100568 0.00116452 0.004 
165 0.00090056 0.000867009 0.004 0.000879551 0.000885499 0.004 0.000358081 0.000231788 0.004 
180 0.00191499 0.00140012 0.004 0.00114272 0.00108014 0.004 0.00115425 0.00105464 0.004 
195 0.00151347 0.00185698 0.004 0.00142259 0.00190537 0.004 0.00108518 0.00114017 0.004 
210 0.000950358 0.000841901 0.004 0.000719189 3.95186e-05 0.004 0.000819393 1.58704e-05 0.004 
225 0.000834269 0.00101366 0.001 0.000834269 0.000985675 0.004 0.000834269 0.000985675 0.001 
240 0.00086197 0.000907273 0.001 0.000879551 0.000885499 0.004 0.000879551 0.000885499 0.001 
255 0.000950358 0.000841901 0.001 0.000977716 0.000836005 0.004 0.000977716 0.000836005 0.001 
270 0.00103344 0.000838372 0.004 0.0010602 0.000846567 0.004 0.00103344 0.000838372 0.001 
285 0.00112705 0.000896012 0.001 0.00114272 0.000919199 0.004 0.00114272 0.000919199 0.001 
300 0.00110769 0.00112353 0.001 0.000950358 0.00115744 0.001 0.000924391 0.001147 0.001 
315 0.00110769 0.00112353 0.001 0.000950358 0.000841901 0.001 0.000977716 0.000836005 0.001 
ITEM: TIMESTEP
100
ITEM: NUMBER OF SURFS
327
ITEM: BOX BOUNDS oo oo oo
0 0.002
0 0.002
0 0.01
ITEM: SURFS id v1x v1y v1z v2x v2y v2z v3x v3y v3z 
1 0.00199337 0.00110249 0.004 0.00199867 0.000999668 0.004 0.00199867 0.000999668 0 
16 0.00167795 0.00173355 0.004 0.00174981 0.00165982 0 0.00167795 0.00173355 0 
31 0.000921499 0.00199669 0.004 0.00102442 0.00199934 0 0.000921499 0.00199669 0 
46 0.000282522 0.00169761 0.004 0.000358081 0.00176755 0 0.000282522 0.00169761 0 
61 1.05862e-05 0.000845778 0.004 0 0.00094819 0.004 0 0.00094819 0 
76 0.000358081 0.000231788 0.004 0.000282522 0.000301724 0.004 0.000282522 0.000301724 0 
91 0.00112707 7.94569e-06 0.004 0.00102442 0 0 0.00112707 7.94569e-06 0 
106 0.00174981 0.000339516 0.004 0.00167795 0.000265783 0.004 0.00167795 0.000265783 0 
121 0.000838998 0.000958092 0.004 1.05862e-05 0.000845778 0.004 3.16464e-05 0.000744997 0.004 
136 0.000819393 0.00198347 0.004 0.000950358 0.00115744 0.004 0.000977716 0.00116333 0.004 